Title: * spicenetlist
Date: Wed Jun 02 18:06:39  2021
Plotname: AC Analysis
Flags: complex
No. Variables: 6
No. Points: 7001
Variables:
	0	frequency	frequency grid=3
	1	v(vin)	voltage
	2	v(vout1)	voltage
	3	i(i(v_vsupply1))	current
	4	i(i(v_vsrc))	current
	5	i(i(v_vsupply))	current
Values:
 0	1.000000000000000e+000,0.000000000000000e+000
	1.000000000000000e+000,0.000000000000000e+000
	-8.399468465467860e+000,1.989321861288616e-004
	0.000000000000000e+000,0.000000000000000e+000
	-3.700579145376946e-004,3.114950529853204e-009
	0.000000000000000e+000,0.000000000000000e+000

 1	1.002305238077900e+000,0.000000000000000e+000
	1.000000000000000e+000,0.000000000000000e+000
	-8.399468465446837e+000,1.993907721787989e-004
	0.000000000000000e+000,0.000000000000000e+000
	-3.700579145373608e-004,3.122131232419131e-009
	0.000000000000000e+000,0.000000000000000e+000

 2	1.004615790278395e+000,0.000000000000000e+000
	1.000000000000000e+000,0.000000000000000e+000
	-8.399468465425729e+000,1.998504153786915e-004
	0.000000000000000e+000,0.000000000000000e+000
	-3.700579145370257e-004,3.129328488211394e-009
	0.000000000000000e+000,0.000000000000000e+000

 3	1.006931668851804e+000,0.000000000000000e+000
	1.000000000000000e+000,0.000000000000000e+000
	-8.399468465404517e+000,2.003111181656317e-004
	0.000000000000000e+000,0.000000000000000e+000
	-3.700579145366890e-004,3.136542335393459e-009
	0.000000000000000e+000,0.000000000000000e+000

 4	1.009252886076684e+000,0.000000000000000e+000
	1.000000000000000e+000,0.000000000000000e+000
	-8.399468465383206e+000,2.007728829821574e-004
	0.000000000000000e+000,0.000000000000000e+000
	-3.700579145363508e-004,3.143772812209969e-009
	0.000000000000000e+000,0.000000000000000e+000

 5	1.011579454259898e+000,0.000000000000000e+000
	1.000000000000000e+000,0.000000000000000e+000
	-8.399468465361798e+000,2.012357122765429e-004
	0.000000000000000e+000,0.000000000000000e+000
	-3.700579145360109e-004,3.151019956997898e-009
	0.000000000000000e+000,0.000000000000000e+000

 6	1.013911385736679e+000,0.000000000000000e+000
	1.000000000000000e+000,0.000000000000000e+000
	-8.399468465340293e+000,2.016996085025913e-004
	0.000000000000000e+000,0.000000000000000e+000
	-3.700579145356696e-004,3.158283808178051e-009
	0.000000000000000e+000,0.000000000000000e+000

 7	1.016248692870695e+000,0.000000000000000e+000
	1.000000000000000e+000,0.000000000000000e+000
	-8.399468465318689e+000,2.021645741198973e-004
	0.000000000000000e+000,0.000000000000000e+000
	-3.700579145353267e-004,3.165564404265132e-009
	0.000000000000000e+000,0.000000000000000e+000

 8	1.018591388054117e+000,0.000000000000000e+000
	1.000000000000000e+000,0.000000000000000e+000
	-8.399468465296980e+000,2.026306115937086e-004
	0.000000000000000e+000,0.000000000000000e+000
	-3.700579145349820e-004,3.172861783861967e-009
	0.000000000000000e+000,0.000000000000000e+000

 9	1.020939483707680e+000,0.000000000000000e+000
	1.000000000000000e+000,0.000000000000000e+000
	-8.399468465275177e+000,2.030977233947470e-004
	0.000000000000000e+000,0.000000000000000e+000
	-3.700579145346359e-004,3.180175985652131e-009
	0.000000000000000e+000,0.000000000000000e+000

 10	1.023292992280754e+000,0.000000000000000e+000
	1.000000000000000e+000,0.000000000000000e+000
	-8.399468465253271e+000,2.035659119997606e-004
	0.000000000000000e+000,0.000000000000000e+000
	-3.700579145342882e-004,3.187507048421404e-009
	0.000000000000000e+000,0.000000000000000e+000

 11	1.025651926251407e+000,0.000000000000000e+000
	1.000000000000000e+000,0.000000000000000e+000
	-8.399468465231264e+000,2.040351798909160e-004
	0.000000000000000e+000,0.000000000000000e+000
	-3.700579145339389e-004,3.194855011033526e-009
	0.000000000000000e+000,0.000000000000000e+000

 12	1.028016298126473e+000,0.000000000000000e+000
	1.000000000000000e+000,0.000000000000000e+000
	-8.399468465209157e+000,2.045055295563098e-004
	0.000000000000000e+000,0.000000000000000e+000
	-3.700579145335880e-004,3.202219912449997e-009
	0.000000000000000e+000,0.000000000000000e+000

 13	1.030386120441616e+000,0.000000000000000e+000
	1.000000000000000e+000,0.000000000000000e+000
	-8.399468465186944e+000,2.049769634897057e-004
	0.000000000000000e+000,0.000000000000000e+000
	-3.700579145332353e-004,3.209601791719458e-009
	0.000000000000000e+000,0.000000000000000e+000

 14	1.032761405761397e+000,0.000000000000000e+000
	1.000000000000000e+000,0.000000000000000e+000
	-8.399468465164629e+000,2.054494841904937e-004
	0.000000000000000e+000,0.000000000000000e+000
	-3.700579145328811e-004,3.217000687975721e-009
	0.000000000000000e+000,0.000000000000000e+000

 15	1.035142166679343e+000,0.000000000000000e+000
	1.000000000000000e+000,0.000000000000000e+000
	-8.399468465142219e+000,2.059230941639932e-004
	0.000000000000000e+000,0.000000000000000e+000
	-3.700579145325254e-004,3.224416640449432e-009
	0.000000000000000e+000,0.000000000000000e+000

 16	1.037528415818012e+000,0.000000000000000e+000
	1.000000000000000e+000,0.000000000000000e+000
	-8.399468465119696e+000,2.063977959212053e-004
	0.000000000000000e+000,0.000000000000000e+000
	-3.700579145321679e-004,3.231849688457984e-009
	0.000000000000000e+000,0.000000000000000e+000

 17	1.039920165829059e+000,0.000000000000000e+000
	1.000000000000000e+000,0.000000000000000e+000
	-8.399468465097074e+000,2.068735919790609e-004
	0.000000000000000e+000,0.000000000000000e+000
	-3.700579145318088e-004,3.239299871414960e-009
	0.000000000000000e+000,0.000000000000000e+000

 18	1.042317429393304e+000,0.000000000000000e+000
	1.000000000000000e+000,0.000000000000000e+000
	-8.399468465074346e+000,2.073504848600756e-004
	0.000000000000000e+000,0.000000000000000e+000
	-3.700579145314480e-004,3.246767228816256e-009
	0.000000000000000e+000,0.000000000000000e+000

 19	1.044720219220799e+000,0.000000000000000e+000
	1.000000000000000e+000,0.000000000000000e+000
	-8.399468465051511e+000,2.078284770926951e-004
	0.000000000000000e+000,0.000000000000000e+000
	-3.700579145310855e-004,3.254251800253329e-009
	0.000000000000000e+000,0.000000000000000e+000

 20	1.047128548050899e+000,0.000000000000000e+000
	1.000000000000000e+000,0.000000000000000e+000
	-8.399468465028575e+000,2.083075712111707e-004
	0.000000000000000e+000,0.000000000000000e+000
	-3.700579145307215e-004,3.261753625408014e-009
	0.000000000000000e+000,0.000000000000000e+000

 21	1.049542428652321e+000,0.000000000000000e+000
	1.000000000000000e+000,0.000000000000000e+000
	-8.399468465005528e+000,2.087877697556979e-004
	0.000000000000000e+000,0.000000000000000e+000
	-3.700579145303556e-004,3.269272744057633e-009
	0.000000000000000e+000,0.000000000000000e+000

 22	1.051961873823222e+000,0.000000000000000e+000
	1.000000000000000e+000,0.000000000000000e+000
	-8.399468464982377e+000,2.092690752722088e-004
	0.000000000000000e+000,0.000000000000000e+000
	-3.700579145299881e-004,3.276809196066511e-009
	0.000000000000000e+000,0.000000000000000e+000

 23	1.054386896391258e+000,0.000000000000000e+000
	1.000000000000000e+000,0.000000000000000e+000
	-8.399468464959121e+000,2.097514903124553e-004
	0.000000000000000e+000,0.000000000000000e+000
	-3.700579145296189e-004,3.284363021388936e-009
	0.000000000000000e+000,0.000000000000000e+000

 24	1.056817509213657e+000,0.000000000000000e+000
	1.000000000000000e+000,0.000000000000000e+000
	-8.399468464935755e+000,2.102350174342991e-004
	0.000000000000000e+000,0.000000000000000e+000
	-3.700579145292480e-004,3.291934260080263e-009
	0.000000000000000e+000,0.000000000000000e+000

 25	1.059253725177288e+000,0.000000000000000e+000
	1.000000000000000e+000,0.000000000000000e+000
	-8.399468464912278e+000,2.107196592012560e-004
	0.000000000000000e+000,0.000000000000000e+000
	-3.700579145288753e-004,3.299522952278626e-009
	0.000000000000000e+000,0.000000000000000e+000

 26	1.061695557198723e+000,0.000000000000000e+000
	1.000000000000000e+000,0.000000000000000e+000
	-8.399468464888704e+000,2.112054181827719e-004
	0.000000000000000e+000,0.000000000000000e+000
	-3.700579145285012e-004,3.307129138215500e-009
	0.000000000000000e+000,0.000000000000000e+000

 27	1.064143018224315e+000,0.000000000000000e+000
	1.000000000000000e+000,0.000000000000000e+000
	-8.399468464865013e+000,2.116922969544583e-004
	0.000000000000000e+000,0.000000000000000e+000
	-3.700579145281251e-004,3.314752858224665e-009
	0.000000000000000e+000,0.000000000000000e+000

 28	1.066596121230257e+000,0.000000000000000e+000
	1.000000000000000e+000,0.000000000000000e+000
	-8.399468464841215e+000,2.121802980976358e-004
	0.000000000000000e+000,0.000000000000000e+000
	-3.700579145277473e-004,3.322394152723866e-009
	0.000000000000000e+000,0.000000000000000e+000

 29	1.069054879222657e+000,0.000000000000000e+000
	1.000000000000000e+000,0.000000000000000e+000
	-8.399468464817305e+000,2.126694241995833e-004
	0.000000000000000e+000,0.000000000000000e+000
	-3.700579145273678e-004,3.330053062224345e-009
	0.000000000000000e+000,0.000000000000000e+000

 30	1.071519305237605e+000,0.000000000000000e+000
	1.000000000000000e+000,0.000000000000000e+000
	-8.399468464793280e+000,2.131596778537173e-004
	0.000000000000000e+000,0.000000000000000e+000
	-3.700579145269864e-004,3.337729627337548e-009
	0.000000000000000e+000,0.000000000000000e+000

 31	1.073989412341244e+000,0.000000000000000e+000
	1.000000000000000e+000,0.000000000000000e+000
	-8.399468464769152e+000,2.136510616591499e-004
	0.000000000000000e+000,0.000000000000000e+000
	-3.700579145266033e-004,3.345423888757396e-009
	0.000000000000000e+000,0.000000000000000e+000

 32	1.076465213629834e+000,0.000000000000000e+000
	1.000000000000000e+000,0.000000000000000e+000
	-8.399468464744912e+000,2.141435782212417e-004
	0.000000000000000e+000,0.000000000000000e+000
	-3.700579145262186e-004,3.353135887281758e-009
	0.000000000000000e+000,0.000000000000000e+000

 33	1.078946722229828e+000,0.000000000000000e+000
	1.000000000000000e+000,0.000000000000000e+000
	-8.399468464720558e+000,2.146372301512978e-004
	0.000000000000000e+000,0.000000000000000e+000
	-3.700579145258320e-004,3.360865663800105e-009
	0.000000000000000e+000,0.000000000000000e+000

 34	1.081433951297937e+000,0.000000000000000e+000
	1.000000000000000e+000,0.000000000000000e+000
	-8.399468464696092e+000,2.151320200665816e-004
	0.000000000000000e+000,0.000000000000000e+000
	-3.700579145254437e-004,3.368613259293755e-009
	0.000000000000000e+000,0.000000000000000e+000

 35	1.083926914021202e+000,0.000000000000000e+000
	1.000000000000000e+000,0.000000000000000e+000
	-8.399468464671514e+000,2.156279505904111e-004
	0.000000000000000e+000,0.000000000000000e+000
	-3.700579145250535e-004,3.376378714839361e-009
	0.000000000000000e+000,0.000000000000000e+000

 36	1.086425623617064e+000,0.000000000000000e+000
	1.000000000000000e+000,0.000000000000000e+000
	-8.399468464646821e+000,2.161250243521739e-004
	0.000000000000000e+000,0.000000000000000e+000
	-3.700579145246615e-004,3.384162071609110e-009
	0.000000000000000e+000,0.000000000000000e+000

 37	1.088930093333432e+000,0.000000000000000e+000
	1.000000000000000e+000,0.000000000000000e+000
	-8.399468464622013e+000,2.166232439872709e-004
	0.000000000000000e+000,0.000000000000000e+000
	-3.700579145242678e-004,3.391963370868213e-009
	0.000000000000000e+000,0.000000000000000e+000

 38	1.091440336448755e+000,0.000000000000000e+000
	1.000000000000000e+000,0.000000000000000e+000
	-8.399468464597092e+000,2.171226121372410e-004
	0.000000000000000e+000,0.000000000000000e+000
	-3.700579145238721e-004,3.399782653979493e-009
	0.000000000000000e+000,0.000000000000000e+000

 39	1.093956366272092e+000,0.000000000000000e+000
	1.000000000000000e+000,0.000000000000000e+000
	-8.399468464572060e+000,2.176231314496784e-004
	0.000000000000000e+000,0.000000000000000e+000
	-3.700579145234749e-004,3.407619962399773e-009
	0.000000000000000e+000,0.000000000000000e+000

 40	1.096478196143184e+000,0.000000000000000e+000
	1.000000000000000e+000,0.000000000000000e+000
	-8.399468464546905e+000,2.181248045783295e-004
	0.000000000000000e+000,0.000000000000000e+000
	-3.700579145230755e-004,3.415475337683368e-009
	0.000000000000000e+000,0.000000000000000e+000

 41	1.099005839432520e+000,0.000000000000000e+000
	1.000000000000000e+000,0.000000000000000e+000
	-8.399468464521636e+000,2.186276341828988e-004
	0.000000000000000e+000,0.000000000000000e+000
	-3.700579145226744e-004,3.423348821474112e-009
	0.000000000000000e+000,0.000000000000000e+000

 42	1.101539309541413e+000,0.000000000000000e+000
	1.000000000000000e+000,0.000000000000000e+000
	-8.399468464496257e+000,2.191316229295057e-004
	0.000000000000000e+000,0.000000000000000e+000
	-3.700579145222716e-004,3.431240455523004e-009
	0.000000000000000e+000,0.000000000000000e+000

 43	1.104078619902072e+000,0.000000000000000e+000
	1.000000000000000e+000,0.000000000000000e+000
	-8.399468464470754e+000,2.196367734900901e-004
	0.000000000000000e+000,0.000000000000000e+000
	-3.700579145218667e-004,3.439150281664472e-009
	0.000000000000000e+000,0.000000000000000e+000

 44	1.106623783977665e+000,0.000000000000000e+000
	1.000000000000000e+000,0.000000000000000e+000
	-8.399468464445135e+000,2.201430885430202e-004
	0.000000000000000e+000,0.000000000000000e+000
	-3.700579145214601e-004,3.447078341839963e-009
	0.000000000000000e+000,0.000000000000000e+000

 45	1.109174815262400e+000,0.000000000000000e+000
	1.000000000000000e+000,0.000000000000000e+000
	-8.399468464419400e+000,2.206505707726506e-004
	0.000000000000000e+000,0.000000000000000e+000
	-3.700579145210515e-004,3.455024678080222e-009
	0.000000000000000e+000,0.000000000000000e+000

 46	1.111731727281590e+000,0.000000000000000e+000
	1.000000000000000e+000,0.000000000000000e+000
	-8.399468464393545e+000,2.211592228696126e-004
	0.000000000000000e+000,0.000000000000000e+000
	-3.700579145206411e-004,3.462989332516362e-009
	0.000000000000000e+000,0.000000000000000e+000

 47	1.114294533591728e+000,0.000000000000000e+000
	1.000000000000000e+000,0.000000000000000e+000
	-8.399468464367565e+000,2.216690475307862e-004
	0.000000000000000e+000,0.000000000000000e+000
	-3.700579145202287e-004,3.470972347378455e-009
	0.000000000000000e+000,0.000000000000000e+000

 48	1.116863247780559e+000,0.000000000000000e+000
	1.000000000000000e+000,0.000000000000000e+000
	-8.399468464341471e+000,2.221800474592040e-004
	0.000000000000000e+000,0.000000000000000e+000
	-3.700579145198145e-004,3.478973764991357e-009
	0.000000000000000e+000,0.000000000000000e+000

 49	1.119437883467150e+000,0.000000000000000e+000
	1.000000000000000e+000,0.000000000000000e+000
	-8.399468464315257e+000,2.226922253640645e-004
	0.000000000000000e+000,0.000000000000000e+000
	-3.700579145193984e-004,3.486993627774957e-009
	0.000000000000000e+000,0.000000000000000e+000

 50	1.122018454301962e+000,0.000000000000000e+000
	1.000000000000000e+000,0.000000000000000e+000
	-8.399468464288917e+000,2.232055839610088e-004
	0.000000000000000e+000,0.000000000000000e+000
	-3.700579145189803e-004,3.495031978254685e-009
	0.000000000000000e+000,0.000000000000000e+000

 51	1.124604973966925e+000,0.000000000000000e+000
	1.000000000000000e+000,0.000000000000000e+000
	-8.399468464262458e+000,2.237201259716509e-004
	0.000000000000000e+000,0.000000000000000e+000
	-3.700579145185603e-004,3.503088859042683e-009
	0.000000000000000e+000,0.000000000000000e+000

 52	1.127197456175509e+000,0.000000000000000e+000
	1.000000000000000e+000,0.000000000000000e+000
	-8.399468464235879e+000,2.242358541241024e-004
	0.000000000000000e+000,0.000000000000000e+000
	-3.700579145181385e-004,3.511164312858147e-009
	0.000000000000000e+000,0.000000000000000e+000

 53	1.129795914672796e+000,0.000000000000000e+000
	1.000000000000000e+000,0.000000000000000e+000
	-8.399468464209175e+000,2.247527711527936e-004
	0.000000000000000e+000,0.000000000000000e+000
	-3.700579145177145e-004,3.519258382519901e-009
	0.000000000000000e+000,0.000000000000000e+000

 54	1.132400363235555e+000,0.000000000000000e+000
	1.000000000000000e+000,0.000000000000000e+000
	-8.399468464182348e+000,2.252708797983070e-004
	0.000000000000000e+000,0.000000000000000e+000
	-3.700579145172886e-004,3.527371110939537e-009
	0.000000000000000e+000,0.000000000000000e+000

 55	1.135010815672313e+000,0.000000000000000e+000
	1.000000000000000e+000,0.000000000000000e+000
	-8.399468464155399e+000,2.257901828075573e-004
	0.000000000000000e+000,0.000000000000000e+000
	-3.700579145168609e-004,3.535502541128132e-009
	0.000000000000000e+000,0.000000000000000e+000

 56	1.137627285823429e+000,0.000000000000000e+000
	1.000000000000000e+000,0.000000000000000e+000
	-8.399468464128322e+000,2.263106829338469e-004
	0.000000000000000e+000,0.000000000000000e+000
	-3.700579145164310e-004,3.543652716198096e-009
	0.000000000000000e+000,0.000000000000000e+000

 57	1.140249787561167e+000,0.000000000000000e+000
	1.000000000000000e+000,0.000000000000000e+000
	-8.399468464101126e+000,2.268323829368656e-004
	0.000000000000000e+000,0.000000000000000e+000
	-3.700579145159994e-004,3.551821679362812e-009
	0.000000000000000e+000,0.000000000000000e+000

 58	1.142878334789770e+000,0.000000000000000e+000
	1.000000000000000e+000,0.000000000000000e+000
	-8.399468464073800e+000,2.273552855825941e-004
	0.000000000000000e+000,0.000000000000000e+000
	-3.700579145155656e-004,3.560009473932496e-009
	0.000000000000000e+000,0.000000000000000e+000

 59	1.145512941445533e+000,0.000000000000000e+000
	1.000000000000000e+000,0.000000000000000e+000
	-8.399468464046349e+000,2.278793936434146e-004
	0.000000000000000e+000,0.000000000000000e+000
	-3.700579145151298e-004,3.568216143318190e-009
	0.000000000000000e+000,0.000000000000000e+000

 60	1.148153621496880e+000,0.000000000000000e+000
	1.000000000000000e+000,0.000000000000000e+000
	-8.399468464018769e+000,2.284047098980969e-004
	0.000000000000000e+000,0.000000000000000e+000
	-3.700579145146921e-004,3.576441731030886e-009
	0.000000000000000e+000,0.000000000000000e+000

 61	1.150800388944433e+000,0.000000000000000e+000
	1.000000000000000e+000,0.000000000000000e+000
	-8.399468463991063e+000,2.289312371318122e-004
	0.000000000000000e+000,0.000000000000000e+000
	-3.700579145142522e-004,3.584686280681700e-009
	0.000000000000000e+000,0.000000000000000e+000

 62	1.153453257821090e+000,0.000000000000000e+000
	1.000000000000000e+000,0.000000000000000e+000
	-8.399468463963231e+000,2.294589781361337e-004
	0.000000000000000e+000,0.000000000000000e+000
	-3.700579145138104e-004,3.592949835981551e-009
	0.000000000000000e+000,0.000000000000000e+000

 63	1.156112242192096e+000,0.000000000000000e+000
	1.000000000000000e+000,0.000000000000000e+000
	-8.399468463935271e+000,2.299879357090910e-004
	0.000000000000000e+000,0.000000000000000e+000
	-3.700579145133666e-004,3.601232440742966e-009
	0.000000000000000e+000,0.000000000000000e+000

 64	1.158777356155124e+000,0.000000000000000e+000
	1.000000000000000e+000,0.000000000000000e+000
	-8.399468463907182e+000,2.305181126551984e-004
	0.000000000000000e+000,0.000000000000000e+000
	-3.700579145129208e-004,3.609534138880830e-009
	0.000000000000000e+000,0.000000000000000e+000

 65	1.161448613840340e+000,0.000000000000000e+000
	1.000000000000000e+000,0.000000000000000e+000
	-8.399468463878957e+000,2.310495117853996e-004
	0.000000000000000e+000,0.000000000000000e+000
	-3.700579145124727e-004,3.617854974409857e-009
	0.000000000000000e+000,0.000000000000000e+000

 66	1.164126029410489e+000,0.000000000000000e+000
	1.000000000000000e+000,0.000000000000000e+000
	-8.399468463850607e+000,2.315821359170816e-004
	0.000000000000000e+000,0.000000000000000e+000
	-3.700579145120226e-004,3.626194991444771e-009
	0.000000000000000e+000,0.000000000000000e+000

 67	1.166809617060960e+000,0.000000000000000e+000
	1.000000000000000e+000,0.000000000000000e+000
	-8.399468463822126e+000,2.321159878741986e-004
	0.000000000000000e+000,0.000000000000000e+000
	-3.700579145115706e-004,3.634554234204864e-009
	0.000000000000000e+000,0.000000000000000e+000

 68	1.169499391019868e+000,0.000000000000000e+000
	1.000000000000000e+000,0.000000000000000e+000
	-8.399468463793511e+000,2.326510704871900e-004
	0.000000000000000e+000,0.000000000000000e+000
	-3.700579145111163e-004,3.642932747010379e-009
	0.000000000000000e+000,0.000000000000000e+000

 69	1.172195365548128e+000,0.000000000000000e+000
	1.000000000000000e+000,0.000000000000000e+000
	-8.399468463764766e+000,2.331873865929243e-004
	0.000000000000000e+000,0.000000000000000e+000
	-3.700579145106600e-004,3.651330574279964e-009
	0.000000000000000e+000,0.000000000000000e+000

 70	1.174897554939527e+000,0.000000000000000e+000
	1.000000000000000e+000,0.000000000000000e+000
	-8.399468463735891e+000,2.337249390350451e-004
	0.000000000000000e+000,0.000000000000000e+000
	-3.700579145102018e-004,3.659747760543930e-009
	0.000000000000000e+000,0.000000000000000e+000

 71	1.177605973520804e+000,0.000000000000000e+000
	1.000000000000000e+000,0.000000000000000e+000
	-8.399468463706882e+000,2.342637306634599e-004
	0.000000000000000e+000,0.000000000000000e+000
	-3.700579145097413e-004,3.668184350423767e-009
	0.000000000000000e+000,0.000000000000000e+000

 72	1.180320635651727e+000,0.000000000000000e+000
	1.000000000000000e+000,0.000000000000000e+000
	-8.399468463677739e+000,2.348037643348786e-004
	0.000000000000000e+000,0.000000000000000e+000
	-3.700579145092787e-004,3.676640388652997e-009
	0.000000000000000e+000,0.000000000000000e+000

 73	1.183041555725162e+000,0.000000000000000e+000
	1.000000000000000e+000,0.000000000000000e+000
	-8.399468463648457e+000,2.353450429124826e-004
	0.000000000000000e+000,0.000000000000000e+000
	-3.700579145088139e-004,3.685115920063773e-009
	0.000000000000000e+000,0.000000000000000e+000

 74	1.185768748167157e+000,0.000000000000000e+000
	1.000000000000000e+000,0.000000000000000e+000
	-8.399468463619042e+000,2.358875692660348e-004
	0.000000000000000e+000,0.000000000000000e+000
	-3.700579145083469e-004,3.693610989590852e-009
	0.000000000000000e+000,0.000000000000000e+000

 75	1.188502227437015e+000,0.000000000000000e+000
	1.000000000000000e+000,0.000000000000000e+000
	-8.399468463589491e+000,2.364313462720177e-004
	0.000000000000000e+000,0.000000000000000e+000
	-3.700579145078778e-004,3.702125642276690e-009
	0.000000000000000e+000,0.000000000000000e+000

 76	1.191242008027372e+000,0.000000000000000e+000
	1.000000000000000e+000,0.000000000000000e+000
	-8.399468463559805e+000,2.369763768134272e-004
	0.000000000000000e+000,0.000000000000000e+000
	-3.700579145074066e-004,3.710659923262925e-009
	0.000000000000000e+000,0.000000000000000e+000

 77	1.193988104464270e+000,0.000000000000000e+000
	1.000000000000000e+000,0.000000000000000e+000
	-8.399468463529979e+000,2.375226637800337e-004
	0.000000000000000e+000,0.000000000000000e+000
	-3.700579145069331e-004,3.719213877800345e-009
	0.000000000000000e+000,0.000000000000000e+000

 78	1.196740531307240e+000,0.000000000000000e+000
	1.000000000000000e+000,0.000000000000000e+000
	-8.399468463500019e+000,2.380702100680933e-004
	0.000000000000000e+000,0.000000000000000e+000
	-3.700579145064576e-004,3.727787551237099e-009
	0.000000000000000e+000,0.000000000000000e+000

 79	1.199499303149376e+000,0.000000000000000e+000
	1.000000000000000e+000,0.000000000000000e+000
	-8.399468463469916e+000,2.386190185807754e-004
	0.000000000000000e+000,0.000000000000000e+000
	-3.700579145059797e-004,3.736380989035212e-009
	0.000000000000000e+000,0.000000000000000e+000

 80	1.202264434617409e+000,0.000000000000000e+000
	1.000000000000000e+000,0.000000000000000e+000
	-8.399468463439680e+000,2.391690922276656e-004
	0.000000000000000e+000,0.000000000000000e+000
	-3.700579145054998e-004,3.744994236750619e-009
	0.000000000000000e+000,0.000000000000000e+000

 81	1.205035940371794e+000,0.000000000000000e+000
	1.000000000000000e+000,0.000000000000000e+000
	-8.399468463409301e+000,2.397204339252630e-004
	0.000000000000000e+000,0.000000000000000e+000
	-3.700579145050175e-004,3.753627340052412e-009
	0.000000000000000e+000,0.000000000000000e+000

 82	1.207813835106776e+000,0.000000000000000e+000
	1.000000000000000e+000,0.000000000000000e+000
	-8.399468463378781e+000,2.402730465967871e-004
	0.000000000000000e+000,0.000000000000000e+000
	-3.700579145045330e-004,3.762280344714827e-009
	0.000000000000000e+000,0.000000000000000e+000

 83	1.210598133550479e+000,0.000000000000000e+000
	1.000000000000000e+000,0.000000000000000e+000
	-8.399468463348123e+000,2.408269331720118e-004
	0.000000000000000e+000,0.000000000000000e+000
	-3.700579145040464e-004,3.770953296610373e-009
	0.000000000000000e+000,0.000000000000000e+000

 84	1.213388850464973e+000,0.000000000000000e+000
	1.000000000000000e+000,0.000000000000000e+000
	-8.399468463317323e+000,2.413820965877073e-004
	0.000000000000000e+000,0.000000000000000e+000
	-3.700579145035574e-004,3.779646241726862e-009
	0.000000000000000e+000,0.000000000000000e+000

 85	1.216186000646364e+000,0.000000000000000e+000
	1.000000000000000e+000,0.000000000000000e+000
	-8.399468463286381e+000,2.419385397871852e-004
	0.000000000000000e+000,0.000000000000000e+000
	-3.700579145030663e-004,3.788359226149094e-009
	0.000000000000000e+000,0.000000000000000e+000

 86	1.218989598924862e+000,0.000000000000000e+000
	1.000000000000000e+000,0.000000000000000e+000
	-8.399468463255294e+000,2.424962657207946e-004
	0.000000000000000e+000,0.000000000000000e+000
	-3.700579145025728e-004,3.797092296078083e-009
	0.000000000000000e+000,0.000000000000000e+000

 87	1.221799660164868e+000,0.000000000000000e+000
	1.000000000000000e+000,0.000000000000000e+000
	-8.399468463224062e+000,2.430552773454535e-004
	0.000000000000000e+000,0.000000000000000e+000
	-3.700579145020771e-004,3.805845497812170e-009
	0.000000000000000e+000,0.000000000000000e+000

 88	1.224616199265044e+000,0.000000000000000e+000
	1.000000000000000e+000,0.000000000000000e+000
	-8.399468463192690e+000,2.436155776248830e-004
	0.000000000000000e+000,0.000000000000000e+000
	-3.700579145015791e-004,3.814618877755901e-009
	0.000000000000000e+000,0.000000000000000e+000

 89	1.227439231158403e+000,0.000000000000000e+000
	1.000000000000000e+000,0.000000000000000e+000
	-8.399468463161172e+000,2.441771695299118e-004
	0.000000000000000e+000,0.000000000000000e+000
	-3.700579145010788e-004,3.823412482431664e-009
	0.000000000000000e+000,0.000000000000000e+000

 90	1.230268770812377e+000,0.000000000000000e+000
	1.000000000000000e+000,0.000000000000000e+000
	-8.399468463129512e+000,2.447400560379785e-004
	0.000000000000000e+000,0.000000000000000e+000
	-3.700579145005763e-004,3.832226358459680e-009
	0.000000000000000e+000,0.000000000000000e+000

 91	1.233104833228904e+000,0.000000000000000e+000
	1.000000000000000e+000,0.000000000000000e+000
	-8.399468463097700e+000,2.453042401334773e-004
	0.000000000000000e+000,0.000000000000000e+000
	-3.700579145000712e-004,3.841060552571273e-009
	0.000000000000000e+000,0.000000000000000e+000

 92	1.235947433444506e+000,0.000000000000000e+000
	1.000000000000000e+000,0.000000000000000e+000
	-8.399468463065741e+000,2.458697248075781e-004
	0.000000000000000e+000,0.000000000000000e+000
	-3.700579144995639e-004,3.849915111601387e-009
	0.000000000000000e+000,0.000000000000000e+000

 93	1.238796586530364e+000,0.000000000000000e+000
	1.000000000000000e+000,0.000000000000000e+000
	-8.399468463033637e+000,2.464365130585174e-004
	0.000000000000000e+000,0.000000000000000e+000
	-3.700579144990543e-004,3.858790082499667e-009
	0.000000000000000e+000,0.000000000000000e+000

 94	1.241652307592406e+000,0.000000000000000e+000
	1.000000000000000e+000,0.000000000000000e+000
	-8.399468463001385e+000,2.470046078912656e-004
	0.000000000000000e+000,0.000000000000000e+000
	-3.700579144985423e-004,3.867685512317017e-009
	0.000000000000000e+000,0.000000000000000e+000

 95	1.244514611771380e+000,0.000000000000000e+000
	1.000000000000000e+000,0.000000000000000e+000
	-8.399468462968983e+000,2.475740123178875e-004
	0.000000000000000e+000,0.000000000000000e+000
	-3.700579144980280e-004,3.876601448219368e-009
	0.000000000000000e+000,0.000000000000000e+000

 96	1.247383514242938e+000,0.000000000000000e+000
	1.000000000000000e+000,0.000000000000000e+000
	-8.399468462936433e+000,2.481447293572375e-004
	0.000000000000000e+000,0.000000000000000e+000
	-3.700579144975113e-004,3.885537937475319e-009
	0.000000000000000e+000,0.000000000000000e+000

 97	1.250259030217715e+000,0.000000000000000e+000
	1.000000000000000e+000,0.000000000000000e+000
	-8.399468462903734e+000,2.487167620352365e-004
	0.000000000000000e+000,0.000000000000000e+000
	-3.700579144969923e-004,3.894495027466662e-009
	0.000000000000000e+000,0.000000000000000e+000

 98	1.253141174941411e+000,0.000000000000000e+000
	1.000000000000000e+000,0.000000000000000e+000
	-8.399468462870880e+000,2.492901133847334e-004
	0.000000000000000e+000,0.000000000000000e+000
	-3.700579144964708e-004,3.903472765682559e-009
	0.000000000000000e+000,0.000000000000000e+000

 99	1.256029963694869e+000,0.000000000000000e+000
	1.000000000000000e+000,0.000000000000000e+000
	-8.399468462837875e+000,2.498647864456299e-004
	0.000000000000000e+000,0.000000000000000e+000
	-3.700579144959468e-004,3.912471199724040e-009
	0.000000000000000e+000,0.000000000000000e+000

 100	1.258925411794162e+000,0.000000000000000e+000
	1.000000000000000e+000,0.000000000000000e+000
	-8.399468462804721e+000,2.504407842647005e-004
	0.000000000000000e+000,0.000000000000000e+000
	-3.700579144954207e-004,3.921490377296571e-009
	0.000000000000000e+000,0.000000000000000e+000

 101	1.261827534590665e+000,0.000000000000000e+000
	1.000000000000000e+000,0.000000000000000e+000
	-8.399468462771409e+000,2.510181098958831e-004
	0.000000000000000e+000,0.000000000000000e+000
	-3.700579144948918e-004,3.930530346221088e-009
	0.000000000000000e+000,0.000000000000000e+000

 102	1.264736347471146e+000,0.000000000000000e+000
	1.000000000000000e+000,0.000000000000000e+000
	-8.399468462737948e+000,2.515967664000850e-004
	0.000000000000000e+000,0.000000000000000e+000
	-3.700579144943606e-004,3.939591154425999e-009
	0.000000000000000e+000,0.000000000000000e+000

 103	1.267651865857840e+000,0.000000000000000e+000