Title: * spicenetlist
Date: Wed Jun 02 18:16:33  2021
Plotname: DC transfer characteristic
Flags: real
No. Variables: 7
No. Points: 1001
Variables:
	0	v-sweep	voltage
	1	v(vin)	voltage
	2	v(vout1)	voltage
	3	v(vdist1)	voltage
	4	i(i(v_vsupply))	current
	5	i(i(v_vsupply1))	current
	6	i(i(v_vsrc))	current
Values:
 0	5.000000000000000e-001
	5.000000000000000e-001
	-4.196527638017591e+000
	-7.857524782617247e-001
	-3.000000000000000e-010
	3.000000000000000e-010
	-1.849027136639728e-004

 1	4.990000000000000e-001
	4.990000000000000e-001
	-4.188136004759441e+000
	-7.856949593571054e-001
	-3.000000000000000e-010
	3.000000000000000e-010
	-1.845329642214524e-004

 2	4.980000000000000e-001
	4.980000000000000e-001
	-4.179744371243509e+000
	-7.856371659962134e-001
	-3.000000000000000e-010
	3.000000000000000e-010
	-1.841632147687830e-004

 3	4.970000000000000e-001
	4.970000000000000e-001
	-4.171352737660868e+000
	-7.855793016133749e-001
	-3.000000000000000e-010
	3.000000000000000e-010
	-1.837934653134874e-004

 4	4.960000000000000e-001
	4.960000000000000e-001
	-4.162961103945214e+000
	-7.855212956148615e-001
	-3.000000000000000e-010
	3.000000000000000e-010
	-1.834237158529551e-004

 5	4.950000000000000e-001
	4.950000000000000e-001
	-4.154569470095895e+000
	-7.854631473060983e-001
	-3.000000000000000e-010
	3.000000000000000e-010
	-1.830539663871603e-004

 6	4.940000000000000e-001
	4.940000000000000e-001
	-4.146177836112255e+000
	-7.854048559898551e-001
	-3.000000000000000e-010
	3.000000000000000e-010
	-1.826842169160774e-004

 7	4.930000000000000e-001
	4.930000000000000e-001
	-4.137786201993634e+000
	-7.853464209634602e-001
	-3.000000000000000e-010
	3.000000000000000e-010
	-1.823144674396802e-004

 8	4.920000000000000e-001
	4.920000000000000e-001
	-4.129394567739369e+000
	-7.852878415190635e-001
	-3.000000000000000e-010
	3.000000000000000e-010
	-1.819447179579428e-004

 9	4.910000000000000e-001
	4.910000000000000e-001
	-4.121002933348788e+000
	-7.852291169435828e-001
	-3.000000000000000e-010
	3.000000000000000e-010
	-1.815749684708385e-004

 10	4.900000000000000e-001
	4.900000000000000e-001
	-4.112611298821219e+000
	-7.851702465186559e-001
	-3.000000000000000e-010
	3.000000000000000e-010
	-1.812052189783411e-004

 11	4.890000000000000e-001
	4.890000000000000e-001
	-4.104219664155978e+000
	-7.851112295205852e-001
	-3.000000000000000e-010
	3.000000000000000e-010
	-1.808354694804236e-004

 12	4.880000000000000e-001
	4.880000000000000e-001
	-4.095828029352385e+000
	-7.850520652202867e-001
	-3.000000000000000e-010
	3.000000000000000e-010
	-1.804657199770590e-004

 13	4.870000000000000e-001
	4.870000000000000e-001
	-4.087436394409746e+000
	-7.849927528832364e-001
	-3.000000000000000e-010
	3.000000000000000e-010
	-1.800959704682203e-004

 14	4.860000000000000e-001
	4.860000000000000e-001
	-4.079044759327369e+000
	-7.849332917694150e-001
	-3.000000000000000e-010
	3.000000000000000e-010
	-1.797262209538801e-004

 15	4.850000000000000e-001
	4.850000000000000e-001
	-4.070653124104553e+000
	-7.848736811332545e-001
	-3.000000000000000e-010
	3.000000000000000e-010
	-1.793564714340108e-004

 16	4.840000000000000e-001
	4.840000000000000e-001
	-4.062261488740591e+000
	-7.848139202235815e-001
	-3.000000000000000e-010
	3.000000000000000e-010
	-1.789867219085846e-004

 17	4.830000000000000e-001
	4.830000000000000e-001
	-4.053869853234773e+000
	-7.847540082835615e-001
	-3.000000000000000e-010
	3.000000000000000e-010
	-1.786169723775736e-004

 18	4.820000000000000e-001
	4.820000000000000e-001
	-4.045478217586383e+000
	-7.846939445506423e-001
	-3.000000000000000e-010
	3.000000000000000e-010
	-1.782472228409494e-004

 19	4.810000000000000e-001
	4.810000000000000e-001
	-4.037086581794700e+000
	-7.846337282564958e-001
	-3.000000000000000e-010
	3.000000000000000e-010
	-1.778774732986839e-004

 20	4.800000000000000e-001
	4.800000000000000e-001
	-4.028694945858995e+000
	-7.845733586269597e-001
	-3.000000000000000e-010
	3.000000000000000e-010
	-1.775077237507481e-004

 21	4.790000000000000e-001
	4.790000000000000e-001
	-4.020303309778536e+000
	-7.845128348819789e-001
	-3.000000000000000e-010
	3.000000000000000e-010
	-1.771379741971135e-004

 22	4.780000000000000e-001
	4.780000000000000e-001
	-4.011911673552586e+000
	-7.844521562355450e-001
	-3.000000000000000e-010
	3.000000000000000e-010
	-1.767682246377509e-004

 23	4.770000000000000e-001
	4.770000000000000e-001
	-4.003520037180401e+000
	-7.843913218956355e-001
	-3.000000000000000e-010
	3.000000000000000e-010
	-1.763984750726309e-004

 24	4.760000000000000e-001
	4.760000000000000e-001
	-3.995128400661230e+000
	-7.843303310641540e-001
	-3.000000000000000e-010
	3.000000000000000e-010
	-1.760287255017242e-004

 25	4.750000000000000e-001
	4.750000000000000e-001
	-3.986736763994318e+000
	-7.842691829368658e-001
	-3.000000000000000e-010
	3.000000000000000e-010
	-1.756589759250009e-004

 26	4.740000000000000e-001
	4.740000000000000e-001
	-3.978345127178905e+000
	-7.842078767033368e-001
	-3.000000000000000e-010
	3.000000000000000e-010
	-1.752892263424311e-004

 27	4.730000000000000e-001
	4.730000000000000e-001
	-3.969953490214221e+000
	-7.841464115468684e-001
	-3.000000000000000e-010
	3.000000000000000e-010
	-1.749194767539845e-004

 28	4.720000000000000e-001
	4.720000000000000e-001
	-3.961561853099496e+000
	-7.840847866444337e-001
	-3.000000000000000e-010
	3.000000000000000e-010
	-1.745497271596308e-004

 29	4.710000000000000e-001
	4.710000000000000e-001
	-3.953170215833949e+000
	-7.840230011666123e-001
	-3.000000000000000e-010
	3.000000000000000e-010
	-1.741799775593393e-004

 30	4.700000000000000e-001
	4.700000000000000e-001
	-3.944778578416798e+000
	-7.839610542775224e-001
	-3.000000000000000e-010
	3.000000000000000e-010
	-1.738102279530791e-004

 31	4.690000000000000e-001
	4.690000000000000e-001
	-3.936386940847247e+000
	-7.838989451347560e-001
	-3.000000000000000e-010
	3.000000000000000e-010
	-1.734404783408189e-004

 32	4.680000000000000e-001
	4.680000000000000e-001
	-3.927995303124503e+000
	-7.838366728893094e-001
	-3.000000000000000e-010
	3.000000000000000e-010
	-1.730707287225275e-004

 33	4.670000000000000e-001
	4.670000000000000e-001
	-3.919603665247760e+000
	-7.837742366855135e-001
	-3.000000000000000e-010
	3.000000000000000e-010
	-1.727009790981732e-004

 34	4.660000000000000e-001
	4.660000000000000e-001
	-3.911212027216208e+000
	-7.837116356609670e-001
	-3.000000000000000e-010
	3.000000000000000e-010
	-1.723312294677240e-004

 35	4.650000000000000e-001
	4.650000000000000e-001
	-3.902820389029031e+000
	-7.836488689464620e-001
	-3.000000000000000e-010
	3.000000000000000e-010
	-1.719614798311479e-004

 36	4.640000000000000e-001
	4.640000000000000e-001
	-3.894428750685406e+000
	-7.835859356659156e-001
	-3.000000000000000e-010
	3.000000000000000e-010
	-1.715917301884125e-004

 37	4.630000000000000e-001
	4.630000000000000e-001
	-3.886037112184505e+000
	-7.835228349362952e-001
	-3.000000000000000e-010
	3.000000000000000e-010
	-1.712219805394850e-004

 38	4.620000000000000e-001
	4.620000000000000e-001
	-3.877645473525489e+000
	-7.834595658675451e-001
	-3.000000000000000e-010
	3.000000000000000e-010
	-1.708522308843327e-004

 39	4.610000000000000e-001
	4.610000000000000e-001
	-3.869253834707519e+000
	-7.833961275625136e-001
	-3.000000000000000e-010
	3.000000000000000e-010
	-1.704824812229222e-004

 40	4.600000000000000e-001
	4.600000000000000e-001
	-3.860862195729742e+000
	-7.833325191168759e-001
	-3.000000000000000e-010
	3.000000000000000e-010
	-1.701127315552203e-004

 41	4.590000000000000e-001
	4.590000000000000e-001
	-3.852470556591304e+000
	-7.832687396190580e-001
	-3.000000000000000e-010
	3.000000000000000e-010
	-1.697429818811930e-004

 42	4.580000000000000e-001
	4.580000000000000e-001
	-3.844078917291341e+000
	-7.832047881501587e-001
	-3.000000000000000e-010
	3.000000000000000e-010
	-1.693732322008066e-004

 43	4.570000000000000e-001
	4.570000000000000e-001
	-3.835687277828984e+000
	-7.831406637838735e-001
	-3.000000000000000e-010
	3.000000000000000e-010
	-1.690034825140267e-004

 44	4.560000000000000e-001
	4.560000000000000e-001
	-3.827295638203355e+000
	-7.830763655864104e-001
	-3.000000000000000e-010
	3.000000000000000e-010
	-1.686337328208187e-004

 45	4.550000000000000e-001
	4.550000000000000e-001
	-3.818903998413571e+000
	-7.830118926164141e-001
	-3.000000000000000e-010
	3.000000000000000e-010
	-1.682639831211480e-004

 46	4.540000000000000e-001
	4.540000000000000e-001
	-3.810512358458739e+000
	-7.829472439248809e-001
	-3.000000000000000e-010
	3.000000000000000e-010
	-1.678942334149794e-004

 47	4.530000000000000e-001
	4.530000000000000e-001
	-3.802120718337962e+000
	-7.828824185550771e-001
	-3.000000000000000e-010
	3.000000000000000e-010
	-1.675244837022775e-004

 48	4.520000000000000e-001
	4.520000000000000e-001
	-3.793729078050331e+000
	-7.828174155424545e-001
	-3.000000000000000e-010
	3.000000000000000e-010
	-1.671547339830066e-004

 49	4.510000000000000e-001
	4.510000000000000e-001
	-3.785337437594937e+000
	-7.827522339145663e-001
	-3.000000000000000e-010
	3.000000000000000e-010
	-1.667849842571308e-004

 50	4.500000000000000e-001
	4.500000000000000e-001
	-3.776945796970856e+000
	-7.826868726909788e-001
	-3.000000000000000e-010
	3.000000000000000e-010
	-1.664152345246139e-004

 51	4.490000000000000e-001
	4.490000000000000e-001
	-3.768554156177161e+000
	-7.826213308831863e-001
	-3.000000000000000e-010
	3.000000000000000e-010
	-1.660454847854193e-004

 52	4.480000000000000e-001
	4.480000000000000e-001
	-3.760162515212915e+000
	-7.825556074945201e-001
	-3.000000000000000e-010
	3.000000000000000e-010
	-1.656757350395100e-004

 53	4.470000000000000e-001
	4.470000000000000e-001
	-3.751770874077176e+000
	-7.824897015200608e-001
	-3.000000000000000e-010
	3.000000000000000e-010
	-1.653059852868491e-004

 54	4.460000000000000e-001
	4.460000000000000e-001
	-3.743379232768989e+000
	-7.824236119465450e-001
	-3.000000000000000e-010
	3.000000000000000e-010
	-1.649362355273989e-004

 55	4.450000000000000e-001
	4.450000000000000e-001
	-3.734987591287396e+000
	-7.823573377522742e-001
	-3.000000000000000e-010
	3.000000000000000e-010
	-1.645664857611218e-004

 56	4.440000000000000e-001
	4.440000000000000e-001
	-3.726595949631431e+000
	-7.822908779070210e-001
	-3.000000000000000e-010
	3.000000000000000e-010
	-1.641967359879796e-004

 57	4.430000000000000e-001
	4.430000000000000e-001
	-3.718204307800115e+000
	-7.822242313719339e-001
	-3.000000000000000e-010
	3.000000000000000e-010
	-1.638269862079338e-004

 58	4.420000000000000e-001
	4.420000000000000e-001
	-3.709812665792467e+000
	-7.821573970994404e-001
	-3.000000000000000e-010
	3.000000000000000e-010
	-1.634572364209459e-004

 59	4.410000000000000e-001
	4.410000000000000e-001
	-3.701421023607494e+000
	-7.820903740331504e-001
	-3.000000000000000e-010
	3.000000000000000e-010
	-1.630874866269766e-004

 60	4.400000000000000e-001
	4.400000000000000e-001
	-3.693029381244195e+000
	-7.820231611077569e-001
	-3.000000000000000e-010
	3.000000000000000e-010
	-1.627177368259867e-004

 61	4.390000000000000e-001
	4.390000000000000e-001
	-3.684637738701560e+000
	-7.819557572489343e-001
	-3.000000000000000e-010
	3.000000000000000e-010
	-1.623479870179363e-004

 62	4.379999999999999e-001
	4.379999999999999e-001
	-3.676246095978573e+000
	-7.818881613732382e-001
	-3.000000000000000e-010
	3.000000000000000e-010
	-1.619782372027855e-004

 63	4.369999999999999e-001
	4.369999999999999e-001
	-3.667854453074206e+000
	-7.818203723880017e-001
	-3.000000000000000e-010
	3.000000000000000e-010
	-1.616084873804938e-004

 64	4.359999999999999e-001
	4.359999999999999e-001
	-3.659462809987427e+000
	-7.817523891912298e-001
	-3.000000000000000e-010
	3.000000000000000e-010
	-1.612387375510204e-004

 65	4.349999999999999e-001
	4.349999999999999e-001
	-3.651071166717188e+000
	-7.816842106714942e-001
	-3.000000000000000e-010
	3.000000000000000e-010
	-1.608689877143244e-004

 66	4.339999999999999e-001
	4.339999999999999e-001
	-3.642679523262439e+000
	-7.816158357078248e-001
	-3.000000000000000e-010
	3.000000000000000e-010
	-1.604992378703641e-004

 67	4.329999999999999e-001
	4.329999999999999e-001
	-3.634287879622118e+000
	-7.815472631696007e-001
	-3.000000000000000e-010
	3.000000000000000e-010
	-1.601294880190978e-004

 68	4.319999999999999e-001
	4.319999999999999e-001
	-3.625896235795152e+000
	-7.814784919164399e-001
	-3.000000000000000e-010
	3.000000000000000e-010
	-1.597597381604834e-004

 69	4.309999999999999e-001
	4.309999999999999e-001
	-3.617504591780462e+000
	-7.814095207980850e-001
	-3.000000000000000e-010
	3.000000000000000e-010
	-1.593899882944783e-004

 70	4.299999999999999e-001
	4.299999999999999e-001
	-3.609112947576958e+000
	-7.813403486542920e-001
	-3.000000000000000e-010
	3.000000000000000e-010
	-1.590202384210395e-004

 71	4.289999999999999e-001
	4.289999999999999e-001
	-3.600721303183542e+000
	-7.812709743147118e-001
	-3.000000000000000e-010
	3.000000000000000e-010
	-1.586504885401239e-004

 72	4.279999999999999e-001
	4.279999999999999e-001
	-3.592329658599102e+000
	-7.812013965987742e-001
	-3.000000000000000e-010
	3.000000000000000e-010
	-1.582807386516878e-004

 73	4.269999999999999e-001
	4.269999999999999e-001
	-3.583938013822522e+000
	-7.811316143155689e-001
	-3.000000000000000e-010
	3.000000000000000e-010
	-1.579109887556870e-004

 74	4.259999999999999e-001
	4.259999999999999e-001
	-3.575546368852674e+000
	-7.810616262637237e-001
	-3.000000000000000e-010
	3.000000000000000e-010
	-1.575412388520773e-004

 75	4.249999999999999e-001
	4.249999999999999e-001
	-3.567154723688418e+000
	-7.809914312312831e-001
	-3.000000000000000e-010
	3.000000000000000e-010
	-1.571714889408138e-004

 76	4.239999999999999e-001
	4.239999999999999e-001
	-3.558763078328605e+000
	-7.809210279955827e-001
	-3.000000000000000e-010
	3.000000000000000e-010
	-1.568017390218512e-004

 77	4.229999999999999e-001
	4.229999999999999e-001
	-3.550371432772078e+000
	-7.808504153231235e-001
	-3.000000000000000e-010
	3.000000000000000e-010
	-1.564319890951440e-004

 78	4.219999999999999e-001
	4.219999999999999e-001
	-3.541979787017669e+000
	-7.807795919694444e-001
	-3.000000000000000e-010
	3.000000000000000e-010
	-1.560622391606462e-004

 79	4.209999999999999e-001
	4.209999999999999e-001
	-3.533588141064197e+000
	-7.807085566789909e-001
	-3.000000000000000e-010
	3.000000000000000e-010
	-1.556924892183112e-004

 80	4.199999999999999e-001
	4.199999999999999e-001
	-3.525196494910472e+000
	-7.806373081849839e-001
	-3.000000000000000e-010
	3.000000000000000e-010
	-1.553227392680923e-004

 81	4.189999999999999e-001
	4.189999999999999e-001
	-3.516804848555295e+000
	-7.805658452092860e-001
	-3.000000000000000e-010
	3.000000000000000e-010
	-1.549529893099423e-004

 82	4.179999999999999e-001
	4.179999999999999e-001
	-3.508413201997453e+000
	-7.804941664622654e-001
	-3.000000000000000e-010
	3.000000000000000e-010
	-1.545832393438133e-004

 83	4.169999999999999e-001
	4.169999999999999e-001
	-3.500021555235726e+000
	-7.804222706426575e-001
	-3.000000000000000e-010
	3.000000000000000e-010
	-1.542134893696573e-004

 84	4.159999999999999e-001
	4.159999999999999e-001
	-3.491629908268878e+000
	-7.803501564374257e-001
	-3.000000000000000e-010
	3.000000000000000e-010
	-1.538437393874259e-004

 85	4.149999999999999e-001
	4.149999999999999e-001
	-3.483238261095666e+000
	-7.802778225216182e-001
	-3.000000000000000e-010
	3.000000000000000e-010
	-1.534739893970698e-004

 86	4.139999999999999e-001
	4.139999999999999e-001
	-3.474846613714834e+000
	-7.802052675582251e-001
	-3.000000000000000e-010
	3.000000000000000e-010
	-1.531042393985398e-004

 87	4.129999999999999e-001
	4.129999999999999e-001
	-3.466454966125115e+000
	-7.801324901980311e-001
	-3.000000000000000e-010
	3.000000000000000e-010
	-1.527344893917858e-004

 88	4.119999999999999e-001
	4.119999999999999e-001
	-3.458063318325231e+000
	-7.800594890794668e-001
	-3.000000000000000e-010
	3.000000000000000e-010
	-1.523647393767577e-004

 89	4.109999999999999e-001
	4.109999999999999e-001
	-3.449671670313890e+000
	-7.799862628284576e-001
	-3.000000000000000e-010
	3.000000000000000e-010
	-1.519949893534045e-004

 90	4.099999999999999e-001
	4.099999999999999e-001
	-3.441280022089789e+000
	-7.799128100582718e-001
	-3.000000000000000e-010
	3.000000000000000e-010
	-1.516252393216749e-004

 91	4.089999999999999e-001
	4.089999999999999e-001
	-3.432888373651615e+000
	-7.798391293693630e-001
	-3.000000000000000e-010
	3.000000000000000e-010
	-1.512554892815174e-004

 92	4.079999999999999e-001
	4.079999999999999e-001
	-3.424496724998041e+000
	-7.797652193492136e-001
	-3.000000000000000e-010
	3.000000000000000e-010
	-1.508857392328795e-004

 93	4.069999999999999e-001
	4.069999999999999e-001
	-3.416105076127727e+000
	-7.796910785721734e-001
	-3.000000000000000e-010
	3.000000000000000e-010
	-1.505159891757085e-004

 94	4.059999999999999e-001
	4.059999999999999e-001
	-3.407713427039322e+000
	-7.796167055992976e-001
	-3.000000000000000e-010
	3.000000000000000e-010
	-1.501462391099514e-004

 95	4.049999999999999e-001
	4.049999999999999e-001
	-3.399321777731462e+000
	-7.795420989781807e-001
	-3.000000000000000e-010
	3.000000000000000e-010
	-1.497764890355543e-004

 96	4.039999999999999e-001
	4.039999999999999e-001
	-3.390930128202771e+000
	-7.794672572427889e-001
	-3.000000000000000e-010
	3.000000000000000e-010
	-1.494067389524630e-004

 97	4.029999999999999e-001
	4.029999999999999e-001
	-3.382538478451857e+000
	-7.793921789132885e-001
	-3.000000000000000e-010
	3.000000000000000e-010
	-1.490369888606229e-004

 98	4.019999999999999e-001
	4.019999999999999e-001
	-3.374146828477318e+000
	-7.793168624958742e-001
	-3.000000000000000e-010
	3.000000000000000e-010
	-1.486672387599786e-004

 99	4.009999999999999e-001
	4.009999999999999e-001
	-3.365755178277736e+000
	-7.792413064825918e-001
	-3.000000000000000e-010
	3.000000000000000e-010
	-1.482974886504745e-004

 100	3.999999999999999e-001
	3.999999999999999e-001
	-3.357363527851685e+000
	-7.791655093511594e-001
	-3.000000000000000e-010
	3.000000000000000e-010
	-1.479277385320542e-004

 101	3.989999999999999e-001
	3.989999999999999e-001
	-3.348971877197717e+000
	-7.790894695647866e-001
	-3.000000000000000e-010
	3.000000000000000e-010
	-1.475579884046609e-004

 102	3.979999999999999e-001
	3.979999999999999e-001
	-3.340580226314380e+000
	-7.790131855719890e-001
	-3.000000000000000e-010
	3.000000000000000e-010
	-1.471882382682373e-004

 103	3.969999999999999e-001
	3.969999999999999e-001
	-3.332188575200198e+000
	-7.789366558064015e-001
	-3.000000000000000e-010
	3.000000000000000e-010
	-1.468184881227254e-004

 104	3.959999999999999e-001
	3.959999999999999e-001
	-3.323796923853688e+000
	-7.788598786865870e-001
	-3.000000000000000e-010
	3.000000000000000e-010
	-1.464487379680667e-004

 105	3.949999999999999e-001
	3.949999999999999e-001
	-3.315405272273349e+000
	-7.787828526158445e-001
	-3.000000000000000e-010
	3.000000000000000e-010
	-1.460789878042021e-004

 106	3.939999999999999e-001
	3.939999999999999e-001
	-3.307013620457670e+000
	-7.787055759820102e-001
	-3.000000000000000e-010
	3.000000000000000e-010
	-1.457092376310722e-004

 107	3.929999999999999e-001
	3.929999999999999e-001
	-3.298621968405116e+000
	-7.786280471572591e-001
	-3.000000000000000e-010
	3.000000000000000e-010
	-1.453394874486166e-004

 108	3.919999999999999e-001
	3.919999999999999e-001
	-3.290230316114149e+000
	-7.785502644979024e-001
	-3.000000000000000e-010
	3.000000000000000e-010
	-1.449697372567747e-004

 109	3.909999999999999e-001
	3.909999999999999e-001
	-3.281838663583208e+000
	-7.784722263441798e-001
	-3.000000000000000e-010
	3.000000000000000e-010
	-1.445999870554849e-004

 110	3.899999999999999e-001
	3.899999999999999e-001
	-3.273447010810717e+000
	-7.783939310200511e-001
	-3.000000000000000e-010
	3.000000000000000e-010
	-1.442302368446854e-004

 111	3.889999999999999e-001
	3.889999999999999e-001
	-3.265055357795090e+000
	-7.783153768329819e-001
	-3.000000000000000e-010
	3.000000000000000e-010
	-1.438604866243136e-004

 112	3.879999999999999e-001
	3.879999999999999e-001
	-3.256663704534718e+000
	-7.782365620737282e-001
	-3.000000000000000e-010
	3.000000000000000e-010
	-1.434907363943062e-004

 113	3.869999999999999e-001
	3.869999999999999e-001
	-3.248272051027981e+000
	-7.781574850161153e-001
	-3.000000000000000e-010
	3.000000000000000e-010
	-1.431209861545994e-004

 114	3.859999999999999e-001
	3.859999999999999e-001
	-3.239880397273243e+000
	-7.780781439168147e-001
	-3.000000000000000e-010
	3.000000000000000e-010
	-1.427512359051288e-004

 115	3.849999999999999e-001
	3.849999999999999e-001
	-3.231488743268848e+000
	-7.779985370151167e-001
	-3.000000000000000e-010
	3.000000000000000e-010
	-1.423814856458293e-004

 116	3.839999999999999e-001
	3.839999999999999e-001
	-3.223097089013127e+000
	-7.779186625326975e-001
	-3.000000000000000e-010
	3.000000000000000e-010
	-1.420117353766350e-004

 117	3.829999999999999e-001
	3.829999999999999e-001
	-3.214705434504392e+000
	-7.778385186733867e-001
	-3.000000000000000e-010
	3.000000000000000e-010
	-1.416419850974796e-004

 118	3.819999999999999e-001
	3.819999999999999e-001
	-3.206313779740940e+000
	-7.777581036229257e-001
	-3.000000000000000e-010
	3.000000000000000e-010
	-1.412722348082960e-004

 119	3.809999999999999e-001
	3.809999999999999e-001
	-3.197922124721049e+000
	-7.776774155487271e-001
	-3.000000000000000e-010
	3.000000000000000e-010
	-1.409024845090163e-004

 120	3.799999999999999e-001
	3.799999999999999e-001
	-3.189530469442981e+000
	-7.775964525996252e-001
	-3.000000000000000e-010
	3.000000000000000e-010
	-1.405327341995723e-004

 121	3.789999999999999e-001
	3.789999999999999e-001
	-3.181138813904978e+000
	-7.775152129056264e-001
	-3.000000000000000e-010
	3.000000000000000e-010
	-1.401629838798947e-004

 122	3.779999999999999e-001
	3.779999999999999e-001
	-3.172747158105269e+000
	-7.774336945776530e-001
	-3.000000000000000e-010
	3.000000000000000e-010
	-1.397932335499136e-004

 123	3.769999999999999e-001
	3.769999999999999e-001
	-3.164355502042057e+000
	-7.773518957072830e-001
	-3.000000000000000e-010
	3.000000000000000e-010
	-1.394234832095585e-004

 124	3.759999999999999e-001
	3.759999999999999e-001
	-3.155963845713536e+000
	-7.772698143664863e-001
	-3.000000000000000e-010
	3.000000000000000e-010
	-1.390537328587581e-004

 125	3.749999999999999e-001
	3.749999999999999e-001
	-3.147572189117872e+000
	-7.771874486073561e-001
	-3.000000000000000e-010
	3.000000000000000e-010
	-1.386839824974403e-004

 126	3.739999999999999e-001
	3.739999999999999e-001
	-3.139180532253219e+000
	-7.771047964618338e-001
	-3.000000000000000e-010
	3.000000000000000e-010
	-1.383142321255325e-004

 127	3.729999999999999e-001
	3.729999999999999e-001
	-3.130788875117708e+000
	-7.770218559414334e-001
	-3.000000000000000e-010
	3.000000000000000e-010
	-1.379444817429610e-004

 128	3.719999999999999e-001
	3.719999999999999e-001
	-3.122397217709453e+000
	-7.769386250369558e-001
	-3.000000000000000e-010
	3.000000000000000e-010
	-1.375747313496515e-004

 129	3.709999999999999e-001
	3.709999999999999e-001
	-3.114005560026547e+000
	-7.768551017182029e-001
	-3.000000000000000e-010
	3.000000000000000e-010
	-1.372049809455291e-004

 130	3.699999999999999e-001
	3.699999999999999e-001
	-3.105613902067062e+000
	-7.767712839336836e-001
	-3.000000000000000e-010
	3.000000000000000e-010
	-1.368352305305177e-004

 131	3.689999999999999e-001
	3.689999999999999e-001
	-3.097222243829052e+000
	-7.766871696103171e-001
	-3.000000000000000e-010
	3.000000000000000e-010
	-1.364654801045408e-004

 132	3.679999999999999e-001
	3.679999999999999e-001
	-3.088830585310550e+000
	-7.766027566531278e-001
	-3.000000000000000e-010
	3.000000000000000e-010
	-1.360957296675209e-004

 133	3.669999999999999e-001
	3.669999999999999e-001
	-3.080438926509565e+000
	-7.765180429449375e-001
	-3.000000000000000e-010
	3.000000000000000e-010
	-1.357259792193798e-004

 134	3.659999999999999e-001
	3.659999999999999e-001
	-3.072047267424089e+000
	-7.764330263460526e-001
	-3.000000000000000e-010
	3.000000000000000e-010
	-1.353562287600382e-004

 135	3.649999999999999e-001
	3.649999999999999e-001
	-3.063655608052089e+000
	-7.763477046939423e-001
	-3.000000000000000e-010
	3.000000000000000e-010
	-1.349864782894162e-004

 136	3.639999999999999e-001
	3.639999999999999e-001
	-3.055263948391517e+000
	-7.762620758029153e-001
	-3.000000000000000e-010
	3.000000000000000e-010
	-1.346167278074330e-004

 137	3.629999999999999e-001
	3.629999999999999e-001
	-3.046872288440291e+000
	-7.761761374637877e-001
	-3.000000000000000e-010
	3.000000000000000e-010
	-1.342469773140069e-004

 138	3.619999999999999e-001
	3.619999999999999e-001
	-3.038480628196320e+000
	-7.760898874435465e-001
	-3.000000000000000e-010
	3.000000000000000e-010
	-1.338772268090553e-004

 139	3.609999999999999e-001
	3.609999999999999e-001
	-3.030088967657478e+000
	-7.760033234850060e-001
	-3.000000000000000e-010
	3.000000000000000e-010
	-1.335074762924948e-004

 140	3.599999999999999e-001
	3.599999999999999e-001
	-3.021697306821628e+000
	-7.759164433064596e-001
	-3.000000000000000e-010
	3.000000000000000e-010
	-1.331377257642410e-004

 141	3.589999999999999e-001
	3.589999999999999e-001
	-3.013305645686598e+000
	-7.758292446013229e-001
	-3.000000000000000e-010
	3.000000000000000e-010
	-1.327679752242085e-004

 142	3.579999999999999e-001
	3.579999999999999e-001
	-3.004913984250202e+000
	-7.757417250377728e-001
	-3.000000000000000e-010
	3.000000000000000e-010
	-1.323982246723113e-004

 143	3.569999999999999e-001
	3.569999999999999e-001
	-2.996522322510224e+000
	-7.756538822583792e-001
	-3.000000000000000e-010
	3.000000000000000e-010
	-1.320284741084620e-004

 144	3.559999999999999e-001
	3.559999999999999e-001
	-2.988130660464426e+000
	-7.755657138797283e-001
	-3.000000000000000e-010
	3.000000000000000e-010
	-1.316587235325726e-004

 145	3.549999999999999e-001
	3.549999999999999e-001
	-2.979738998110542e+000
	-7.754772174920414e-001
	-3.000000000000000e-010
	3.000000000000000e-010
	-1.312889729445539e-004

 146	3.539999999999999e-001
	3.539999999999999e-001
	-2.971347335446287e+000
	-7.753883906587857e-001
	-3.000000000000000e-010
	3.000000000000000e-010
	-1.309192223443159e-004

 147	3.529999999999999e-001
	3.529999999999999e-001
	-2.962955672469345e+000
	-7.752992309162783e-001
	-3.000000000000000e-010
	3.000000000000000e-010
	-1.305494717317674e-004

 148	3.519999999999999e-001
	3.519999999999999e-001
	-2.954564009177378e+000
	-7.752097357732803e-001
	-3.000000000000000e-010
	3.000000000000000e-010
	-1.301797211068163e-004

 149	3.509999999999999e-001
	3.509999999999999e-001
	-2.946172345568018e+000
	-7.751199027105885e-001
	-3.000000000000000e-010
	3.000000000000000e-010
	-1.298099704693695e-004

 150	3.499999999999999e-001
	3.499999999999999e-001
	-2.937780681638872e+000
	-7.750297291806146e-001
	-3.000000000000000e-010
	3.000000000000000e-010
	-1.294402198193328e-004

 151	3.489999999999999e-001
	3.489999999999999e-001
	-2.929389017387521e+000
	-7.749392126069581e-001
	-3.000000000000000e-010
	3.000000000000000e-010
	-1.290704691566108e-004

 152	3.479999999999999e-001
	3.479999999999999e-001
	-2.920997352811518e+000
	-7.748483503839730e-001
	-3.000000000000000e-010
	3.000000000000000e-010
	-1.287007184811072e-004

 153	3.469999999999999e-001
	3.469999999999999e-001
	-2.912605687908386e+000
	-7.747571398763233e-001
	-3.000000000000000e-010
	3.000000000000000e-010
	-1.283309677927247e-004

 154	3.459999999999999e-001
	3.459999999999999e-001
	-2.904214022675623e+000
	-7.746655784185320e-001
	-3.000000000000000e-010
	3.000000000000000e-010
	-1.279612170913646e-004

 155	3.449999999999999e-001
	3.449999999999999e-001
	-2.895822357110697e+000
	-7.745736633145215e-001
	-3.000000000000000e-010
	3.000000000000000e-010
	-1.275914663769272e-004

 156	3.439999999999999e-001
	3.439999999999999e-001
	-2.887430691211045e+000
	-7.744813918371437e-001
	-3.000000000000000e-010
	3.000000000000000e-010
	-1.272217156493117e-004

 157	3.429999999999999e-001
	3.429999999999999e-001
	-2.879039024974076e+000
	-7.743887612277028e-001
	-3.000000000000000e-010
	3.000000000000000e-010
	-1.268519649084160e-004

 158	3.419999999999999e-001
	3.419999999999999e-001
	-2.870647358397171e+000
	-7.742957686954692e-001
	-3.000000000000000e-010
	3.000000000000000e-010
	-1.264822141541370e-004

 159	3.409999999999999e-001
	3.409999999999999e-001
	-2.862255691477676e+000
	-7.742024114171805e-001
	-3.000000000000000e-010
	3.000000000000000e-010
	-1.261124633863703e-004

 160	3.399999999999999e-001
	3.399999999999999e-001
	-2.853864024212909e+000
	-7.741086865365378e-001
	-3.000000000000000e-010
	3.000000000000000e-010
	-1.257427126050102e-004

 161	3.389999999999999e-001
	3.389999999999999e-001
	-2.845472356600155e+000
	-7.740145911636888e-001
	-3.000000000000000e-010
	3.000000000000000e-010
	-1.253729618099499e-004

 162	3.379999999999999e-001
	3.379999999999999e-001
	-2.837080688636669e+000
	-7.739201223747010e-001
	-3.000000000000000e-010
	3.000000000000000e-010
	-1.250032110010813e-004

 163	3.369999999999999e-001
	3.369999999999999e-001
	-2.828689020319672e+000
	-7.738252772110273e-001
	-3.000000000000000e-010
	3.000000000000000e-010
	-1.246334601782950e-004

 164	3.359999999999999e-001
	3.359999999999999e-001
	-2.820297351646351e+000
	-7.737300526789569e-001
	-3.000000000000000e-010
	3.000000000000000e-010
	-1.242637093414801e-004

 165	3.349999999999999e-001
	3.349999999999999e-001
	-2.811905682613860e+000
	-7.736344457490589e-001
	-3.000000000000000e-010
	3.000000000000000e-010
	-1.238939584905249e-004

 166	3.339999999999999e-001
	3.339999999999999e-001
	-2.803514013219323e+000
	-7.735384533556132e-001
	-3.000000000000000e-010
	3.000000000000000e-010
	-1.235242076253158e-004

 167	3.329999999999999e-001
	3.329999999999999e-001
	-2.795122343459822e+000
	-7.734420723960297e-001
	-3.000000000000000e-010
	3.000000000000000e-010
	-1.231544567457381e-004

 168	3.319999999999999e-001
	3.319999999999999e-001